! AWR Design Environment (10030) Sat Mar 20 22:50:41 2021
! Document = 'Mounted Transistor'
! nPorts: 2, nXvals: 250

[Version] 2.0
# GHz S DB R 50
[Number of Ports] 2
[Two-Port Data Order] 12_21
[Number of Frequencies] 250
[Number of Noise Frequencies] 250
[Network Data]
!Freq DBS11 AngS11 DBS12 AngS12 DBS21 AngS21 DBS22 AngS22 
0.01 -0.0049984076 -0.17464552 -74.860038 89.976481 19.139265 179.74216 -19.388778 0.65535599 
0.02 -0.0050812297 -0.34928877 -68.839237 89.953324 19.139032 179.48512 -19.384595 1.3034189 
0.03 -0.0052190008 -0.52393012 -65.317149 89.930209 19.138763 179.22825 -19.378644 1.9490536 
0.04 -0.0054117418 -0.69856951 -62.818043 89.907108 19.138451 178.97151 -19.370868 2.5923131 
0.05 -0.00565947 -0.87320669 -60.879437 89.884011 19.138091 178.71487 -19.361263 3.2329753 
0.06 -0.005962198 -1.0478413 -59.295329 89.86091 19.137685 178.45832 -19.349846 3.8707762 
0.07 -0.0063199321 -1.222473 -57.955833 89.837797 19.137233 178.20185 -19.336639 4.505453 
0.08 -0.0067326729 -1.3971013 -56.795353 89.814662 19.136734 177.94546 -19.321664 5.1367483 
0.09 -0.0072004156 -1.5717257 -55.771582 89.791498 19.136189 177.68914 -19.304944 5.7644041 
0.1 -0.0077231508 -1.7463459 -54.85563 89.768298 19.135598 177.43287 -19.286501 6.3881588 
0.11 -0.0083008655 -1.9209613 -54.026894 89.745053 19.134961 177.17665 -19.266358 7.007745 
0.12 -0.0089335437 -2.0955715 -53.270159 89.721758 19.134276 176.92048 -19.24454 7.6228911 
0.13 -0.0096211671 -2.2701761 -52.573871 89.698405 19.133544 176.66436 -19.221072 8.2333233 
0.14 -0.010363715 -2.4447747 -51.929052 89.674989 19.132765 176.40828 -19.195981 8.8387682 
0.15 -0.011161166 -2.6193667 -51.32858 89.651505 19.131937 176.15224 -19.169297 9.4389555 
0.16 -0.012013497 -2.7939519 -50.766718 89.627945 19.131062 175.89624 -19.14105 10.033621 
0.17 -0.01292068 -2.9685297 -50.23877 89.604306 19.130137 175.64028 -19.111275 10.622506 
0.18 -0.01388269 -3.1430998 -49.74085 89.580581 19.129164 175.38437 -19.080005 11.205364 
0.19 -0.014899499 -3.3176617 -49.269698 89.556766 19.128142 175.12849 -19.047276 11.781957 
0.2 -0.015971075 -3.492215 -48.822561 89.532856 19.12707 174.87267 -19.013126 12.352058 
0.21 -0.017097388 -3.6667593 -48.397085 89.508845 19.125949 174.61688 -18.977595 12.915454 
0.22 -0.018278405 -3.8412943 -47.991247 89.48473 19.124779 174.36115 -18.940721 13.471943 
0.23 -0.01951409 -4.0158194 -47.603295 89.460504 19.123559 174.10546 -18.902546 14.021337 
0.24 -0.020804408 -4.1903344 -47.231698 89.436163 19.12229 173.84982 -18.86311 14.563461 
0.25 -0.02214932 -4.3648388 -46.875115 89.411702 19.120971 173.59423 -18.822457 15.098153 
0.26 -0.023548788 -4.5393322 -46.532361 89.387117 19.119602 173.3387 -18.780628 15.625265 
0.27 -0.025002769 -4.7138142 -46.202387 89.362403 19.118184 173.08322 -18.737666 16.144661 
0.28 -0.026511222 -4.8882845 -45.884258 89.337555 19.116716 172.82779 -18.693615 16.65622 
0.29 -0.028074102 -5.0627427 -45.577136 89.312568 19.115198 172.57243 -18.648517 17.159831 
0.3 -0.029691364 -5.2371883 -45.280271 89.287438 19.113631 172.31712 -18.602415 17.6554 
0.31 -0.031362959 -5.4116212 -44.992984 89.262161 19.112014 172.06188 -18.555353 18.14284 
0.32 -0.03308884 -5.5860408 -44.714662 89.23673 19.110348 171.80669 -18.507372 18.62208 
0.33 -0.034868956 -5.7604468 -44.44475 89.211143 19.108632 171.55158 -18.458515 19.093059 
0.34 -0.036703254 -5.9348389 -44.182741 89.185395 19.106867 171.29652 -18.408824 19.555728 
0.35 -0.038591682 -6.1092167 -43.928172 89.159481 19.105052 171.04154 -18.35834 20.010046 
0.36 -0.040534184 -6.28358 -43.680621 89.133396 19.103188 170.78663 -18.307105 20.455987 
0.37 -0.042530704 -6.4579283 -43.439698 89.107137 19.101275 170.53178 -18.255158 20.893531 
0.38 -0.044581185 -6.6322613 -43.205046 89.080698 19.099313 170.27702 -18.202539 21.32267 
0.39 -0.046685566 -6.8065788 -42.976336 89.054076 19.097302 170.02232 -18.149286 21.743402 
0.4 -0.048843786 -6.9808804 -42.753264 89.027266 19.095242 169.7677 -18.095438 22.155737 
0.41 -0.051055785 -7.1551658 -42.535548 89.000265 19.093133 169.51316 -18.041033 22.559692 
0.42 -0.053321497 -7.3294347 -42.322926 88.973066 19.090975 169.2587 -17.986106 22.955289 
0.43 -0.055640858 -7.5036869 -42.115155 88.945668 19.088768 169.00432 -17.930693 23.342561 
0.44 -0.058013802 -7.677922 -41.91201 88.918065 19.086513 168.75003 -17.874829 23.721547 
0.45 -0.060440261 -7.8521398 -41.713279 88.890253 19.084209 168.49582 -17.818547 24.09229 
0.46 -0.062920166 -8.02634 -41.518766 88.862229 19.081857 168.24169 -17.761882 24.454841 
0.47 -0.065453446 -8.2005224 -41.328287 88.833987 19.079457 167.98766 -17.704863 24.809256 
0.48 -0.06804003 -8.3746867 -41.141668 88.805525 19.077009 167.73371 -17.647524 25.155596 
0.49 -0.070679845 -8.5488327 -40.958748 88.776838 19.074512 167.47985 -17.589893 25.493927 
0.5 -0.073372816 -8.7229602 -40.779376 88.747923 19.071968 167.22609 -17.532001 25.82432 
0.51 -0.076118869 -8.8970689 -40.603408 88.718775 19.069376 166.97242 -17.473875 26.146848 
0.52 -0.078917927 -9.0711586 -40.430709 88.689391 19.066736 166.71885 -17.415542 26.461589 
0.53 -0.081769911 -9.2452292 -40.261154 88.659766 19.064048 166.46537 -17.357029 26.768625 
0.54 -0.084674743 -9.4192804 -40.094621 88.629898 19.061314 166.212 -17.298362 27.06804 
0.55 -0.087632342 -9.5933121 -39.930999 88.599783 19.058531 165.95872 -17.239565 27.35992 
0.56 -0.090642628 -9.7673241 -39.77018 88.569416 19.055702 165.70555 -17.180662 27.644355 
0.57 -0.093705518 -9.9413162 -39.612063 88.538795 19.052826 165.45248 -17.121676 27.921436 
0.58 -0.096820927 -10.115288 -39.456552 88.507915 19.049903 165.19952 -17.062628 28.191256 
0.59 -0.099988772 -10.28924 -39.303556 88.476774 19.046933 164.94666 -17.003541 28.453911 
0.6 -0.10320897 -10.463172 -39.152989 88.445367 19.043916 164.69391 -16.944433 28.709497 
0.61 -0.10648143 -10.637083 -39.004769 88.413692 19.040853 164.44127 -16.885325 28.95811 
0.62 -0.10980606 -10.810974 -38.858817 88.381745 19.037744 164.18875 -16.826235 29.19985 
0.63 -0.11318278 -10.984844 -38.71506 88.349523 19.034589 163.93634 -16.767182 29.434816 
0.64 -0.1166115 -11.158693 -38.573426 88.317022 19.031387 163.68404 -16.708182 29.663107 
0.65 -0.12009212 -11.332522 -38.433849 88.284239 19.02814 163.43185 -16.649252 29.884823 
0.66 -0.12362455 -11.506329 -38.296265 88.251172 19.024847 163.17979 -16.590407 30.100066 
0.67 -0.12720871 -11.680116 -38.160611 88.217816 19.021509 162.92784 -16.531664 30.308934 
0.68 -0.1308445 -11.853882 -38.026829 88.18417 19.018125 162.67602 -16.473035 30.51153 
0.69 -0.13453182 -12.027627 -37.894863 88.150229 19.014696 162.42431 -16.414535 30.707952 
0.7 -0.13827058 -12.201351 -37.76466 88.115992 19.011222 162.17273 -16.356177 30.898302 
0.71 -0.14206068 -12.375054 -37.636169 88.081454 19.007704 161.92127 -16.297973 31.082679 
0.72 -0.14590203 -12.548736 -37.509339 88.046614 19.00414 161.66994 -16.239936 31.261181 
0.73 -0.14979453 -12.722397 -37.384125 88.011468 19.000532 161.41874 -16.182076 31.433909 
0.74 -0.15373808 -12.896037 -37.260481 87.976013 18.99688 161.16767 -16.124404 31.600958 
0.75 -0.15773257 -13.069656 -37.138364 87.940248 18.993184 160.91672 -16.066931 31.762427 
0.76 -0.16177792 -13.243254 -37.017733 87.904169 18.989444 160.66591 -16.009666 31.918412 
0.77 -0.16587402 -13.416832 -36.898547 87.867773 18.98566 160.41523 -15.952618 32.069009 
0.78 -0.17002077 -13.590388 -36.780768 87.831058 18.981832 160.16468 -15.895797 32.214311 
0.79 -0.17421807 -13.763924 -36.66436 87.794022 18.977961 159.91427 -15.83921 32.354413 
0.8 -0.17846581 -13.93744 -36.549287 87.756662 18.974046 159.664 -15.782865 32.489406 
0.81 -0.18276389 -14.110935 -36.435515 87.718975 18.970089 159.41386 -15.72677 32.619383 
0.82 -0.18711221 -14.28441 -36.323011 87.68096 18.966089 159.16386 -15.670931 32.744434 
0.83 -0.19151067 -14.457865 -36.211744 87.642613 18.962046 158.91401 -15.615356 32.864648 
0.84 -0.19595915 -14.6313 -36.101684 87.603933 18.957961 158.66429 -15.56005 32.980113 
0.85 -0.20045756 -14.804715 -35.9928 87.564918 18.953833 158.41472 -15.505019 33.090915 
0.86 -0.20500579 -14.97811 -35.885065 87.525565 18.949664 158.16529 -15.450269 33.197141 
0.87 -0.20960373 -15.151486 -35.778452 87.485872 18.945452 157.91601 -15.395805 33.298875 
0.88 -0.21425127 -15.324843 -35.672934 87.445837 18.941199 157.66687 -15.341632 33.3962 
0.89 -0.21894832 -15.498181 -35.568486 87.405458 18.936904 157.41788 -15.287755 33.489197 
0.9 -0.22369475 -15.6715 -35.465083 87.364734 18.932568 157.16904 -15.234177 33.577948 
0.91 -0.22849047 -15.8448 -35.362701 87.323661 18.928191 156.92035 -15.180902 33.662532 
0.92 -0.23333536 -16.018083 -35.261319 87.282239 18.923773 156.67181 -15.127935 33.743028 
0.93 -0.23822932 -16.191347 -35.160913 87.240465 18.919315 156.42343 -15.075278 33.819511 
0.94 -0.24317224 -16.364593 -35.061462 87.198337 18.914816 156.17519 -15.022936 33.892058 
0.95 -0.248164 -16.537823 -34.962946 87.155855 18.910277 155.92711 -14.97091 33.960742 
0.96 -0.25320451 -16.711035 -34.865344 87.113016 18.905698 155.67919 -14.919204 34.025638 
0.97 -0.25829364 -16.88423 -34.768637 87.069818 18.901079 155.43142 -14.86782 34.086816 
0.98 -0.2634313 -17.057409 -34.672806 87.026261 18.89642 155.18381 -14.81676 34.144348 
0.99 -0.26861737 -17.230572 -34.577834 86.982342 18.891722 154.93636 -14.766026 34.198303 
1 -0.27385173 -17.40372 -34.483702 86.93806 18.886985 154.68906 -14.715622 34.248749 
1.01 -0.27913429 -17.576852 -34.390393 86.893413 18.882209 154.44193 -14.665547 34.295752 
1.02 -0.28446492 -17.749969 -34.297891 86.8484 18.877394 154.19496 -14.615804 34.339379 
1.03 -0.28984353 -17.923072 -34.20618 86.803021 18.87254 153.94815 -14.566393 34.379694 
1.04 -0.29526999 -18.096161 -34.115244 86.757272 18.867648 153.70151 -14.517318 34.416761 
1.05 -0.30074421 -18.269237 -34.025068 86.711154 18.862719 153.45502 -14.468577 34.450642 
1.06 -0.30626606 -18.442299 -33.935637 86.664665 18.857751 153.20871 -14.420173 34.481397 
1.07 -0.31183544 -18.615349 -33.846938 86.617803 18.852746 152.96256 -14.372107 34.509087 
1.08 -0.31745224 -18.788386 -33.758955 86.570568 18.847703 152.71657 -14.324378 34.53377 
1.09 -0.32311634 -18.961412 -33.671677 86.522959 18.842623 152.47076 -14.276987 34.555505 
1.1 -0.32882764 -19.134427 -33.585089 86.474974 18.837506 152.22511 -14.229935 34.574347 
1.11 -0.33458602 -19.307431 -33.499179 86.426612 18.832352 151.97963 -14.183223 34.590353 
1.12 -0.34039139 -19.480426 -33.413935 86.377873 18.827162 151.73432 -14.13685 34.603577 
1.13 -0.34624362 -19.65341 -33.329345 86.328756 18.821936 151.48919 -14.090816 34.614072 
1.14 -0.3521426 -19.826386 -33.245397 86.279259 18.816673 151.24422 -14.045122 34.621891 
1.15 -0.35808823 -19.999354 -33.162079 86.229382 18.811375 150.99943 -13.999768 34.627085 
1.16 -0.3640804 -20.172314 -33.079382 86.179124 18.806041 150.75481 -13.954753 34.629705 
1.17 -0.370119 -20.345267 -32.997293 86.128484 18.800671 150.51036 -13.910077 34.6298 
1.18 -0.37620392 -20.518214 -32.915802 86.077462 18.795267 150.26609 -13.86574 34.627419 
1.19 -0.38233505 -20.691154 -32.8349 86.026056 18.789827 150.02199 -13.821742 34.622609 
1.2 -0.38851228 -20.86409 -32.754577 85.974267 18.784353 149.77807 -13.778082 34.615417 
1.21 -0.39473551 -21.037021 -32.674822 85.922094 18.778845 149.53433 -13.734759 34.605889 
1.22 -0.40100463 -21.209949 -32.595626 85.869535 18.773302 149.29076 -13.691773 34.59407 
1.23 -0.40731953 -21.382874 -32.516981 85.816591 18.767725 149.04737 -13.649123 34.580004 
1.24 -0.4136801 -21.555796 -32.438877 85.763261 18.762114 148.80416 -13.60681 34.563734 
1.25 -0.42008623 -21.728717 -32.361305 85.709544 18.75647 148.56113 -13.564831 34.545302 
1.26 -0.42653783 -21.901637 -32.284258 85.655441 18.750793 148.31828 -13.523186 34.52475 
1.27 -0.43303479 -22.074557 -32.207726 85.60095 18.745082 148.07561 -13.481875 34.502118 
1.28 -0.43957699 -22.247478 -32.131702 85.546072 18.739339 147.83312 -13.440896 34.477447 
1.29 -0.44616435 -22.4204 -32.056178 85.490806 18.733563 147.59081 -13.400248 34.450776 
1.3 -0.45279674 -22.593325 -31.981145 85.435152 18.727754 147.34869 -13.359931 34.422143 
1.31 -0.45947408 -22.766253 -31.906598 85.379109 18.721914 147.10674 -13.319944 34.391586 
1.32 -0.46619625 -22.939186 -31.832528 85.322677 18.716042 146.86498 -13.280285 34.359141 
1.33 -0.47296315 -23.112123 -31.758928 85.265857 18.710137 146.62341 -13.240954 34.324845 
1.34 -0.47977469 -23.285066 -31.685791 85.208648 18.704202 146.38201 -13.201949 34.288734 
1.35 -0.48663076 -23.458016 -31.613111 85.151049 18.698235 146.1408 -13.16327 34.250842 
1.36 -0.49353126 -23.630973 -31.54088 85.093062 18.692238 145.89978 -13.124915 34.211204 
1.37 -0.50047609 -23.803939 -31.469093 85.034685 18.686209 145.65894 -13.086882 34.169852 
1.38 -0.50746515 -23.976914 -31.397743 84.975919 18.680151 145.41828 -13.049172 34.126821 
1.39 -0.51449834 -24.1499 -31.326823 84.916763 18.674061 145.17782 -13.011782 34.082141 
1.4 -0.52157558 -24.322897 -31.256328 84.857218 18.667942 144.93754 -12.974712 34.035846 
1.41 -0.52869675 -24.495907 -31.186251 84.797284 18.661793 144.69744 -12.93796 33.987965 
1.42 -0.53586176 -24.66893 -31.116588 84.736961 18.655615 144.45753 -12.901524 33.938529 
1.43 -0.54307053 -24.841967 -31.047332 84.676249 18.649407 144.21781 -12.865405 33.887568 
1.44 -0.55032294 -25.01502 -30.978477 84.615148 18.64317 143.97828 -12.8296 33.835112 
1.45 -0.55761892 -25.188089 -30.910019 84.553659 18.636905 143.73894 -12.794107 33.781189 
1.46 -0.56495836 -25.361176 -30.841952 84.491781 18.63061 143.49978 -12.758927 33.725826 
1.47 -0.57234118 -25.534281 -30.774271 84.429514 18.624288 143.26081 -12.724057 33.669053 
1.48 -0.57976728 -25.707406 -30.70697 84.36686 18.617937 143.02203 -12.689496 33.610896 
1.49 -0.58723657 -25.880552 -30.640045 84.303818 18.611558 142.78344 -12.655243 33.551381 
1.5 -0.59474897 -26.05372 -30.573491 84.240389 18.605152 142.54504 -12.621296 33.490535 
1.51 -0.60230438 -26.226911 -30.507304 84.176572 18.598718 142.30683 -12.587654 33.428383 
1.52 -0.60990272 -26.400125 -30.441477 84.112368 18.592257 142.0688 -12.554317 33.36495 
1.53 -0.61754391 -26.573366 -30.376008 84.047779 18.585769 141.83097 -12.521281 33.300262 
1.54 -0.62522784 -26.746632 -30.310891 83.982803 18.579254 141.59333 -12.488547 33.234342 
1.55 -0.63295445 -26.919927 -30.246122 83.917441 18.572713 141.35588 -12.456112 33.167215 
1.56 -0.64072365 -27.09325 -30.181698 83.851695 18.566145 141.11861 -12.423976 33.098902 
1.57 -0.64853535 -27.266603 -30.117612 83.785563 18.559551 140.88154 -12.392136 33.029428 
1.58 -0.65638948 -27.439988 -30.053863 83.719048 18.552932 140.64466 -12.360592 32.958815 
1.59 -0.66428595 -27.613405 -29.990444 83.652148 18.546287 140.40797 -12.329342 32.887084 
1.6 -0.67222468 -27.786856 -29.927353 83.584866 18.539616 140.17147 -12.298386 32.814258 
1.61 -0.6802056 -27.960342 -29.864586 83.517201 18.532921 139.93516 -12.26772 32.740358 
1.62 -0.68822862 -28.133865 -29.802139 83.449153 18.5262 139.69904 -12.237345 32.665404 
1.63 -0.69629368 -28.307425 -29.740008 83.380724 18.519455 139.46311 -12.207259 32.589417 
1.64 -0.70440069 -28.481024 -29.678189 83.311914 18.512686 139.22737 -12.17746 32.512418 
1.65 -0.71254959 -28.654664 -29.61668 83.242723 18.505892 138.99182 -12.147947 32.434425 
1.66 -0.7207403 -28.828345 -29.555475 83.173153 18.499074 138.75646 -12.118719 32.355459 
1.67 -0.72897274 -29.00207 -29.494573 83.103204 18.492232 138.5213 -12.089775 32.275538 
1.68 -0.73724685 -29.175839 -29.433969 83.032876 18.485367 138.28632 -12.061112 32.194682 
1.69 -0.74556257 -29.349653 -29.37366 82.96217 18.478479 138.05153 -12.03273 32.112907 
1.7 -0.75391981 -29.523515 -29.313644 82.891087 18.471567 137.81694 -12.004628 32.030233 
1.71 -0.76231852 -29.697426 -29.253916 82.819628 18.464632 137.58253 -11.976804 31.946678 
1.72 -0.77075863 -29.871387 -29.194474 82.747793 18.457675 137.34832 -11.949256 31.862258 
1.73 -0.77924007 -30.045399 -29.135314 82.675582 18.450696 137.11429 -11.921984 31.776991 
1.74 -0.78776278 -30.219464 -29.076434 82.602998 18.443694 136.88046 -11.894986 31.690893 
1.75 -0.79632671 -30.393584 -29.01783 82.53004 18.43667 136.64681 -11.868261 31.603981 
1.76 -0.80493178 -30.567759 -28.959501 82.456709 18.429625 136.41336 -11.841808 31.516272 
1.77 -0.81357794 -30.741993 -28.901442 82.383007 18.422557 136.18009 -11.815625 31.42778 
1.78 -0.82226514 -30.916285 -28.843651 82.308933 18.415469 135.94702 -11.789711 31.338523 
1.79 -0.83099331 -31.090637 -28.786125 82.234489 18.408359 135.71413 -11.764065 31.248514 
1.8 -0.8397624 -31.265052 -28.728862 82.159675 18.401229 135.48143 -11.738686 31.15777 
1.81 -0.84857236 -31.43953 -28.671858 82.084492 18.394078 135.24892 -11.713572 31.066306 
1.82 -0.85742313 -31.614074 -28.615112 82.008942 18.386906 135.0166 -11.688722 30.974135 
1.83 -0.86631466 -31.788684 -28.558621 81.933024 18.379714 134.78447 -11.664134 30.881272 
1.84 -0.87524691 -31.963362 -28.502382 81.85674 18.372502 134.55253 -11.639809 30.787731 
1.85 -0.88421982 -32.138111 -28.446392 81.780091 18.36527 134.32077 -11.615744 30.693527 
1.86 -0.89323335 -32.312931 -28.39065 81.703077 18.358019 134.0892 -11.591938 30.598672 
1.87 -0.90228745 -32.487825 -28.335152 81.6257 18.350748 133.85782 -11.56839 30.503181 
1.88 -0.91138208 -32.662793 -28.279897 81.54796 18.343458 133.62663 -11.545099 30.407066 
1.89 -0.92051719 -32.837838 -28.224882 81.469858 18.336148 133.39562 -11.522063 30.31034 
1.9 -0.92969275 -33.012961 -28.170105 81.391395 18.32882 133.1648 -11.499283 30.213017 
1.91 -0.93890871 -33.188164 -28.115563 81.312572 18.321474 132.93416 -11.476755 30.115108 
1.92 -0.94816503 -33.363449 -28.061255 81.23339 18.314109 132.70371 -11.45448 30.016626 
1.93 -0.95746168 -33.538817 -28.007178 81.15385 18.306726 132.47345 -11.432456 29.917583 
1.94 -0.96679862 -33.71427 -27.95333 81.073952 18.299324 132.24337 -11.410682 29.817992 
1.95 -0.97617582 -33.889811 -27.899709 80.993698 18.291905 132.01347 -11.389156 29.717863 
1.96 -0.98559324 -34.065439 -27.846313 80.913089 18.284469 131.78376 -11.367879 29.617208 
1.97 -0.99505086 -34.241159 -27.79314 80.832125 18.277015 131.55424 -11.346848 29.51604 
1.98 -1.0045486 -34.41697 -27.740188 80.750807 18.269544 131.32489 -11.326063 29.414368 
1.99 -1.0140866 -34.592875 -27.687454 80.669137 18.262055 131.09573 -11.305522 29.312204 
2 -1.0236646 -34.768877 -27.634938 80.587116 18.25455 130.86675 -11.285225 29.209559 
2.01 -1.0332827 -34.944975 -27.582636 80.504744 18.247029 130.63796 -11.26517 29.106443 
2.02 -1.0429409 -35.121174 -27.530548 80.422022 18.239491 130.40934 -11.245357 29.002868 
2.03 -1.0526391 -35.297473 -27.478671 80.338951 18.231937 130.18091 -11.225784 28.898843 
2.04 -1.0623773 -35.473876 -27.427003 80.255533 18.224366 129.95266 -11.20645 28.794378 
2.05 -1.0721555 -35.650384 -27.375543 80.171767 18.21678 129.72458 -11.187355 28.689483 
2.06 -1.0819737 -35.826999 -27.324289 80.087656 18.209178 129.49669 -11.168497 28.584169 
2.07 -1.0918318 -36.003723 -27.273238 80.003201 18.201561 129.26898 -11.149875 28.478445 
2.08 -1.1017299 -36.180558 -27.222391 79.918401 18.193928 129.04144 -11.131489 28.372321 
2.09 -1.111668 -36.357505 -27.171744 79.833258 18.186281 128.81408 -11.113337 28.265805 
2.1 -1.1216459 -36.534568 -27.121296 79.747774 18.178618 128.58691 -11.095418 28.158908 
2.11 -1.1316638 -36.711746 -27.071045 79.661948 18.17094 128.3599 -11.077732 28.051639 
2.12 -1.1417216 -36.889044 -27.02099 79.575783 18.163249 128.13308 -11.060278 27.944006 
2.13 -1.1518193 -37.066462 -26.97113 79.489279 18.155542 127.90643 -11.043055 27.836018 
2.14 -1.1619568 -37.244003 -26.921462 79.402437 18.147822 127.67995 -11.026061 27.727684 
2.15 -1.1721343 -37.421668 -26.871985 79.315258 18.140087 127.45365 -11.009296 27.619013 
2.16 -1.1823516 -37.59946 -26.822697 79.227743 18.132338 127.22753 -10.992759 27.510014 
2.17 -1.1926089 -37.777381 -26.773598 79.139893 18.124576 127.00158 -10.976449 27.400693 
2.18 -1.202906 -37.955432 -26.724685 79.051709 18.116801 126.7758 -10.960365 27.291061 
2.19 -1.213243 -38.133616 -26.675957 78.963192 18.109012 126.55019 -10.944507 27.181124 
2.2 -1.2236199 -38.311936 -26.627413 78.874343 18.101209 126.32475 -10.928873 27.070892 
2.21 -1.2340366 -38.490392 -26.579051 78.785163 18.093394 126.09949 -10.913463 26.960371 
2.22 -1.2444933 -38.668987 -26.530869 78.695653 18.085566 125.8744 -10.898275 26.84957 
2.23 -1.2549899 -38.847723 -26.482868 78.605814 18.077725 125.64947 -10.88331 26.738497 
2.24 -1.2655265 -39.026603 -26.435044 78.515647 18.069872 125.42472 -10.868566 26.627158 
2.25 -1.2761029 -39.205628 -26.387396 78.425153 18.062007 125.20013 -10.854043 26.515562 
2.26 -1.2867194 -39.384801 -26.339925 78.334333 18.054129 124.97572 -10.839739 26.403716 
2.27 -1.2973757 -39.564124 -26.292627 78.243188 18.046239 124.75146 -10.825654 26.291627 
2.28 -1.3080721 -39.743598 -26.245502 78.151718 18.038337 124.52738 -10.811788 26.179302 
2.29 -1.3188085 -39.923227 -26.198548 78.059926 18.030424 124.30346 -10.798138 26.066748 
2.3 -1.3295848 -40.103012 -26.151765 77.967811 18.022499 124.07971 -10.784706 25.953973 
2.31 -1.3404013 -40.282956 -26.10515 77.875375 18.014563 123.85612 -10.771489 25.840984 
2.32 -1.3512577 -40.46306 -26.058704 77.782619 18.006615 123.63269 -10.758488 25.727786 
2.33 -1.3621543 -40.643328 -26.012423 77.689543 17.998656 123.40943 -10.745701 25.614388 
2.34 -1.373091 -40.823761 -25.966309 77.596149 17.990687 123.18633 -10.733128 25.500795 
2.35 -1.3840678 -41.004361 -25.920358 77.502438 17.982706 122.96339 -10.720768 25.387014 
2.36 -1.3950848 -41.185131 -25.87457 77.408411 17.974715 122.74061 -10.70862 25.273052 
2.37 -1.406142 -41.366074 -25.828944 77.314068 17.966713 122.51799 -10.696684 25.158915 
2.38 -1.4172394 -41.547191 -25.783479 77.21941 17.958701 122.29553 -10.68496 25.044609 
2.39 -1.4283771 -41.728485 -25.738173 77.124439 17.950679 122.07323 -10.673446 24.930141 
2.4 -1.4395551 -41.909957 -25.693026 77.029155 17.942647 121.85108 -10.662141 24.815517 
2.41 -1.4507734 -42.091612 -25.648037 76.93356 17.934605 121.6291 -10.651046 24.700743 
2.42 -1.4620321 -42.27345 -25.603203 76.837654 17.926552 121.40727 -10.64016 24.585826 
2.43 -1.4733313 -42.455474 -25.558525 76.741438 17.918491 121.18559 -10.629482 24.47077 
2.44 -1.4846709 -42.637687 -25.514001 76.644913 17.910419 120.96407 -10.619011 24.355582 
2.45 -1.4960509 -42.820091 -25.46963 76.548081 17.902339 120.7427 -10.608747 24.240269 
2.46 -1.5074716 -43.002688 -25.425411 76.450941 17.894249 120.52148 -10.598689 24.124834 
2.47 -1.5189328 -43.185481 -25.381344 76.353495 17.88615 120.30042 -10.588837 24.009286 
2.48 -1.5304347 -43.368473 -25.337426 76.255744 17.878041 120.07951 -10.57919 23.893628 
2.49 -1.5419772 -43.551665 -25.293658 76.157689 17.869924 119.85875 -10.569748 23.777868 
2.5 -1.5535606 -43.73506 -25.250037 76.05933 17.861799 119.63813 -10.560509 23.662009 

[Noise Data]
!Freq  NFmin(dB)  Mag(GammaOpt)  Ang(GammaOpt)(deg)  Rn(Ohms)
0.01 0.053145925 0.90825526 0.074467739 6.3644865
0.02 0.053157193 0.90824794 0.14892568 6.3652964
0.03 0.053171487 0.90823505 0.22336913 6.3660575
0.04 0.053188918 0.90821677 0.29779723 6.3667964
0.05 0.053209458 0.90819304 0.37221004 6.3675062
0.06 0.053233054 0.90816378 0.44660838 6.3681738
0.07 0.053259654 0.90812891 0.52099356 6.368787
0.08 0.053289221 0.90808837 0.59536709 6.3693374
0.09 0.053321733 0.90804214 0.66973049 6.3698202
0.1 0.053357181 0.90799021 0.74408517 6.3702338
0.11 0.053395562 0.90793259 0.81843235 6.370579
0.12 0.053436881 0.90786931 0.8927731 6.3708577
0.13 0.053481143 0.90780039 0.96710829 6.3710727
0.14 0.053528357 0.90772586 1.0414387 6.3712271
0.15 0.053578527 0.90764577 1.1157649 6.3713238
0.16 0.053631658 0.90756012 1.1900874 6.3713657
0.17 0.053687754 0.90746897 1.2644068 6.3713554
0.18 0.053746817 0.90737233 1.3387234 6.3712951
0.19 0.053808846 0.90727024 1.4130377 6.3711869
0.2 0.05387384 0.90716271 1.48735 6.3710326
0.21 0.053941794 0.90704979 1.5616606 6.3708335
0.22 0.054012706 0.90693148 1.63597 6.370591
0.23 0.054086569 0.90680782 1.7102783 6.3703063
0.24 0.054163376 0.90667883 1.784586 6.3699802
0.25 0.054243118 0.90654453 1.8588934 6.3696135
0.26 0.054325788 0.90640495 1.9332008 6.3692069
0.27 0.054411375 0.90626011 2.0075085 6.3687611
0.28 0.054499868 0.90611004 2.0818168 6.3682766
0.29 0.054591258 0.90595475 2.1561261 6.3677538
0.3 0.054685531 0.90579428 2.2304366 6.367193
0.31 0.054782675 0.90562864 2.3047487 6.3665948
0.32 0.054882677 0.90545787 2.3790626 6.3659593
0.33 0.054985524 0.90528199 2.4533788 6.3652869
0.34 0.055091202 0.90510102 2.5276974 6.3645778
0.35 0.055199696 0.90491499 2.6020189 6.3638323
0.36 0.055310991 0.90472393 2.6763434 6.3630506
0.37 0.055425072 0.90452786 2.7506714 6.3622328
0.38 0.055541924 0.9043268 2.8250031 6.3613792
0.39 0.05566153 0.9041208 2.8993388 6.3604899
0.4 0.055783873 0.90390987 2.9736788 6.359565
0.41 0.055908938 0.90369404 3.0480234 6.3586049
0.42 0.056036708 0.90347335 3.1223729 6.3576095
0.43 0.056167164 0.90324781 3.1967276 6.356579
0.44 0.05630029 0.90301747 3.2710878 6.3555136
0.45 0.056436068 0.90278234 3.3454537 6.3544134
0.46 0.056574479 0.90254246 3.4198257 6.3532785
0.47 0.056715506 0.90229786 3.494204 6.352109
0.48 0.05685913 0.90204857 3.5685889 6.3509051
0.49 0.057005331 0.90179461 3.6429807 6.3496668
0.5 0.057154093 0.90153603 3.7173796 6.3483942
0.51 0.057305394 0.90127284 3.791786 6.3470876
0.52 0.057459217 0.90100508 3.8662001 6.3457468
0.53 0.057615541 0.90073279 3.9406222 6.3443722
0.54 0.057774348 0.90045598 4.0150525 6.3429637
0.55 0.057935617 0.90017471 4.0894914 6.3415214
0.56 0.058099329 0.89988898 4.163939 6.3400455
0.57 0.058265463 0.89959884 4.2383957 6.338536
0.58 0.058434001 0.89930433 4.3128616 6.3369929
0.59 0.058604921 0.89900546 4.3873372 6.3354165
0.6 0.058778204 0.89870227 4.4618226 6.3338068
0.61 0.05895383 0.89839479 4.5363181 6.3321638
0.62 0.059131778 0.89808306 4.610824 6.3304876
0.63 0.059312027 0.89776711 4.6853404 6.3287783
0.64 0.059494558 0.89744696 4.7598678 6.327036
0.65 0.059679351 0.89712265 4.8344063 6.3252607
0.66 0.059866383 0.89679422 4.9089561 6.3234526
0.67 0.060055636 0.89646168 4.9835176 6.3216117
0.68 0.060247089 0.89612508 5.058091 6.319738
0.69 0.060440721 0.89578445 5.1326765 6.3178316
0.7 0.060636512 0.89543981 5.2072745 6.3158927
0.71 0.060834441 0.8950912 5.2818851 6.3139211
0.72 0.061034489 0.89473864 5.3565085 6.3119172
0.73 0.061236634 0.89438218 5.4311452 6.3098808
0.74 0.061440856 0.89402184 5.5057952 6.307812
0.75 0.061647135 0.89365765 5.5804589 6.305711
0.76 0.061855451 0.89328964 5.6551365 6.3035777
0.77 0.062065784 0.89291784 5.7298282 6.3014123
0.78 0.062278113 0.89254229 5.8045343 6.2992147
0.79 0.062492418 0.89216301 5.8792551 6.2969852
0.8 0.06270868 0.89178003 5.9539907 6.2947236
0.81 0.062926878 0.89139338 6.0287415 6.2924301
0.82 0.063146993 0.89100309 6.1035076 6.2901047
0.83 0.063369005 0.8906092 6.1782893 6.2877475
0.84 0.063592894 0.89021172 6.2530869 6.2853586
0.85 0.063818641 0.88981069 6.3279006 6.2829379
0.86 0.064046226 0.88940614 6.4027307 6.2804856
0.87 0.06427563 0.88899809 6.4775773 6.2780018
0.88 0.064506833 0.88858658 6.5524408 6.2754864
0.89 0.064739818 0.88817162 6.6273213 6.2729395
0.9 0.064974563 0.88775326 6.7022191 6.2703611
0.91 0.065211052 0.88733151 6.7771345 6.2677515
0.92 0.065449264 0.8869064 6.8520677 6.2651105
0.93 0.065689181 0.88647797 6.9270189 6.2624382
0.94 0.065930786 0.88604623 7.0019883 6.2597347
0.95 0.066174058 0.88561121 7.0769762 6.2570001
0.96 0.066418981 0.88517295 7.1519829 6.2542344
0.97 0.066665535 0.88473145 7.2270086 6.2514376
0.98 0.066913704 0.88428676 7.3020535 6.2486099
0.99 0.067163469 0.88383889 7.3771178 6.2457512
1 0.067414812 0.88338788 7.4522018 6.2428616
1.01 0.067667716 0.88293373 7.5273057 6.2399413
1.02 0.067922163 0.88247649 7.6024298 6.2369901
1.03 0.068178137 0.88201617 7.6775742 6.2340082
1.04 0.06843562 0.8815528 7.7527393 6.2309956
1.05 0.068694594 0.88108639 7.8279252 6.2279525
1.06 0.068955045 0.88061698 7.9031322 6.2248787
1.07 0.069216953 0.88014459 7.9783606 6.2217745
1.08 0.069480304 0.87966924 8.0536105 6.2186398
1.09 0.06974508 0.87919095 8.1288821 6.2154747
1.1 0.070011266 0.87870974 8.2041758 6.2122793
1.11 0.070278845 0.87822564 8.2794917 6.2090536
1.12 0.070547802 0.87773866 8.3548301 6.2057976
1.13 0.07081812 0.87724883 8.4301912 6.2025115
1.14 0.071089784 0.87675617 8.5055753 6.1991952
1.15 0.071362779 0.8762607 8.5809825 6.1958489
1.16 0.071637089 0.87576244 8.6564131 6.1924725
1.17 0.0719127 0.87526141 8.7318673 6.1890662
1.18 0.072189595 0.87475763 8.8073454 6.18563
1.19 0.072467761 0.87425112 8.8828475 6.1821639
1.2 0.072747182 0.87374189 8.958374 6.178668
1.21 0.073027844 0.87322997 9.0339249 6.1751424
1.22 0.073309733 0.87271538 9.1095007 6.1715871
1.23 0.073592834 0.87219813 9.1851014 6.1680022
1.24 0.073877134 0.87167824 9.2607273 6.1643876
1.25 0.074162618 0.87115573 9.3363787 6.1607436
1.26 0.074449272 0.87063062 9.4120557 6.1570701
1.27 0.074737083 0.87010292 9.4877586 6.1533672
1.28 0.075026038 0.86957265 9.5634876 6.1496349
1.29 0.075316123 0.86903983 9.639243 6.1458734
1.3 0.075607324 0.86850447 9.7150249 6.1420826
1.31 0.075899629 0.86796659 9.7908336 6.1382626
1.32 0.076193026 0.86742621 9.8666693 6.1344135
1.33 0.0764875 0.86688333 9.9425322 6.1305353
1.34 0.07678304 0.86633799 10.018423 6.1266282
1.35 0.077079632 0.86579018 10.094341 6.1226921
1.36 0.077377266 0.86523993 10.170286 6.1187271
1.37 0.077675927 0.86468725 10.24626 6.1147332
1.38 0.077975606 0.86413215 10.322263 6.1107106
1.39 0.078276288 0.86357465 10.398294 6.1066593