! Touchstone file exported from HFSS 2020.2.0
!        File:           /home/kiran/Ansoft/SusMicrostripStub.aedt
!        Generated:      12:55:17 PM  Mar 16, 2021
!        Design:         TLineSim
!        Project:        SusMicrostripStub
!        Setup:          Setup1
!        Solution:       Sweep
!
! Variables:
!        AirBoxH = 11.32mm
!        CondT = 0.018mm
!        FeedL = 20mm
!        HighZL = 45mm
!        HighZW = 1mm
!        InputL = 18.4mm
!        InputW = 3.2mm
!        StubL = 16.9mm
!        StubTroughOffset = 5.4mm
!        StubW = 2mm
!        SubH = 0.787mm
!        SubOffset = 15mm
!        TroughH = 5mm
!        TroughW = 10mm
!        TroughW_Stub = 19.8mm
!        W50 = 2.47mm
!
# GHZ S MA R 50.000000
! Terminal data exported
! Port[1] = 1
! Port[2] = 2
! Port[3] = 3
! Port[4] = 4
0.01                           0.495676443984865 178.246722975188 0.504416846734036 -1.90163080137092 0.499571517579602 179.966756633866 0.499572265813807 179.966726587454 
                               0.504416846734036 -1.90163080137092 0.493100791306551 175.061854894653 0.499947900136669 178.46341221452  0.499947871504281 178.463112253147 
                               0.499571517579603 179.966756633866 0.499947900136669 178.46341221452  0.504762049511218 179.010507770718 0.495102820656713 0.0787162940902574 
                               0.499572265813808 179.966726587454 0.499947871504281 178.463112253147 0.495102820656713 0.0787162940902578 0.504762744951633 179.010178890229 
! Gamma         0.00245869630161993 0.232360752902149 0.00423656547239526 0.238847220646899 0                0                0                0                
! Port Impedance         50               0                50               0                50               0                50               0                
0.016225                       0.495544303066507 177.20459397314  0.504276038192059 -3.15675036491249 0.499681242254526 179.963389748455 0.499682388752294 179.963258085079 
                               0.50427603819206 -3.15675036491249 0.493576253430104 172.126632866342 0.49972102699505 177.49837359303  0.499720823170053 177.497932888532 
                               0.499681242254527 179.963389748455 0.49972102699505 177.49837359303  0.504863087008578 178.321953853499 0.495075248384758 0.206718783999372 
                               0.499682388752291 179.963258085078 0.499720823170069 177.497932888536 0.495075248384755 0.206718783998636 0.504864003317499 178.321388544058 
! Gamma         0.00258784924402683 0.376722644537932 0.00448105500779875 0.386994236598589 0                0                0                0                
! Port Impedance         50               0                50               0                50               0                50               0                
0.02245                        0.495439242556669 176.153306623619 0.503895112198406 -4.39942243464454 0.499919227282042 179.956911292589 0.499920564581735 179.956689391053 
                               0.503895112198406 -4.39942243464453 0.494728308679036 169.181615198448 0.49934216432143 176.532378929139 0.499341815069165 176.531782883045 
                               0.499919227282043 179.956911292589 0.49934216432143 176.532378929139 0.504819386462534 177.644388162911 0.495251291550586 0.321120354431741 
                               0.499920564581731 179.956689391052 0.499341815069182 176.531782883047 0.495251291550582 0.321120354431359 0.504820391663291 177.643580839316 
! Gamma         0.00269070186444709 0.521083641366889 0.00464835413429822 0.535147134620193 0                0                0                0                
! Port Impedance         50               0                50               0                50               0                50               0                
0.028675                       0.495315586453637 175.099760080406 0.503336634776695 -5.63582333109008 0.500257299303611 179.94728508261  0.500258770920799 179.946975263487 
                               0.503336634776695 -5.63582333109008 0.49634181726043 166.244800121068 0.498817354364878 175.568792560228 0.498816881237444 175.568043372812 
                               0.500257299303612 179.94728508261  0.498817354364878 175.568792560228 0.504703194026791 176.97254125544  0.495542956313754 0.428393928866811 
                               0.500258770920797 179.946975263487 0.498816881237456 175.568043372813 0.495542956313752 0.428393928866643 0.504704248564326 176.97149539459  
! Gamma         0.00277559032945873 0.665447567043229 0.00477766850264547 0.683316909755736 0                0                0                0                
! Port Impedance         50               0                50               0                50               0                50               0                
0.0349                         0.495166391314861 174.046603751539 0.502618739219598 -6.86722659222051 0.500685934426293 179.934253011608 0.500687513035648 179.93385595488  
                               0.502618739219598 -6.86722659222051 0.498365661234705 163.325734187651 0.498156672026199 174.608444685695 0.498156094550307 174.607543444192 
                               0.500685934426293 179.934253011608 0.4981566720262  174.608444685695 0.504535899899638 176.304556577987 0.495927972324677 0.530602178885966 
                               0.500687513035647 179.93385595488  0.498156094550314 174.607543444192 0.495927972324676 0.530602178885897 0.504536995322793 176.303274689894 
! Gamma         0.00285282171576275 0.809816327136334 0.00489356008380469 0.831501444396035 0                0                0                0                
! Port Impedance         50               0                50               0                50               0                50               0                
0.041125                       0.494991280588584 172.99513444044  0.501751078770053 -8.09385333259545 0.501199952411338 179.917442371379 0.501201621959796 179.916958388018 
                               0.501751078770054 -8.09385333259545 0.50077646003219 160.430752380105 0.497366124349866 173.65176160359  0.497365453340338 173.6507085271   
                               0.501199952411339 179.917442371379 0.497366124349867 173.65176160359  0.504326309168648 175.639651859763 0.496397447798887 0.628369695440549 
                               0.501201621959795 179.916958388018 0.497365453340342 173.6507085271   0.496397447798886 0.628369695440525 0.50432744564437 175.638135582341 
! Gamma         0.00292876714511273 0.954189003442242 0.00500806345274177 0.979695805972353 0                0                0                0                
! Port Impedance         50               0                50               0                50               0                50               0                
0.04735                        0.494791188851573 171.946138965567 0.500740162915749 -9.31560598952121 0.501795529475857 179.896434562589 0.501797280309969 179.895863849493 
                               0.500740162915749 -9.31560598952121 0.503556531018214 157.564743444088 0.496449842037164 172.699134776527 0.496449081738907 172.697929779785 
                               0.501795529475857 179.896434562589 0.496449842037164 172.699134776527 0.504078917185292 174.977500161044 0.49694625481395 0.721784110607296 
                               0.501797280309969 179.895863849493 0.496449081738909 172.697929779785 0.49694625481395 0.721784110607291 0.504080097726214 174.975750708299 
! Gamma         0.00300683095721824 1.09856400917641 0.00512688537595707 1.12789569181197 0                0                0                0                
! Port Impedance         50               0                50               0                50               0                50               0                
0.053575                       0.494567299096237 170.900190547948 0.499591019739461 -10.5322501172005 0.502469273547042 179.870799433168 0.502471100315693 179.870142093883 
                               0.499591019739461 -10.5322501172005 0.5066887915137  154.731772839204 0.495411248466882 171.750970800142 0.49541039892434 171.749613734729 
                               0.502469273547042 179.870799433168 0.495411248466882 171.750970800142 0.503796502741053 174.317995286743 0.497570550931197 0.810715499257663 
                               0.502471100315693 179.870142093883 0.495410398924341 171.749613734729 0.497570550931197 0.810715499257663 0.503797731648566 174.316013681891 
! Gamma         0.003088684244508 1.24293983013575 0.00525264767302303 1.2760978094368  0                0                0                0                
! Port Impedance         50               0                50               0                50               0                50               0                
0.0598                         0.494320850334631 169.857763688391 0.498307965887342 -11.7434779995207 0.503217876075917 179.840114344922 0.503219776404793 179.839370365884 
                               0.498307965887342 -11.7434779995207 0.510155452312587 151.935328633162 0.49425355906735 170.807689869416 0.494252617712418 170.806180613914 
                               0.503217876075917 179.840114344922 0.49425355906735 170.807689869416 0.503481101450967 173.661146284176 0.498266983904433 0.894942954777521 
                               0.503219776404793 179.839370365884 0.494252617712418 170.806180613914 0.498266983904433 0.894942954777519 0.503482383814078 173.658933466591 
! Gamma         0.00317500920393306 1.38731517869348 0.00538638757257491 1.42429966132616 0                0                0                0                
! Port Impedance         50               0                50               0                50               0                50               0                
0.066025                       0.494053127789344 168.819280976459 0.49689501237435 -12.9489396883009 0.504037970516851 179.803975722682 0.504039944028837 179.803144955963 
                               0.49689501237435 -12.9489396883009 0.513937772360931 149.178427891015 0.492979998798754 169.869717897094 0.492978961443394 169.868056387348 
                               0.504037970516851 179.803975722682 0.492979998798754 169.869717897094 0.503134417205634 173.007024826632 0.499032384898666 0.974210332181161 
                               0.504039944028838 179.803144955963 0.492978961443393 169.868056387348 0.499032384898666 0.974210332181158 0.50313575868475 173.004581702609 
! Gamma         0.00326590132958428 1.53168898108346 0.00552826337843894 1.57249930284816 0                0                0                0                
! Port Impedance         50               0                50               0                50               0                50               0                
0.07225                        0.493765479408623 167.785132667599 0.495356085223098 -14.1482617829435 0.504926077186629 179.762006418329 0.504928124767417 179.761088578706 
                               0.495356085223098 -14.1482617829435 0.518016145964304 146.463667964636 0.491593898894527 168.937479529575 0.491592760352256 168.935665765549 
                               0.50492607718663 179.762006418329 0.491593898894527 168.937479529575 0.502758011279879 172.35573682644  0.499863632952316 1.04825359839131 
                               0.504928124767417 179.761088578706 0.491592760352255 168.935665765549 0.499863632952317 1.04825359839131 0.502759417985055 172.353064295595 
! Gamma         0.00336108525160413 1.67606033153125 0.00567790213130102 1.72069516404881 0                0                0                0                
! Port Impedance         50               0                50               0                50               0                50               0                
0.078475                       0.493459326602009 166.755684942537 0.493695144155182 -15.3410600690095 0.505878588061008 179.713860518476 0.505880711321548 179.712855191046 
                               0.493695144155182 -15.3410600690095 0.522370294689492 143.793256159585 0.490098737573571 168.01139278318  0.490097492055578 168.009426826957 
                               0.505878588061009 179.713860518476 0.490098737573572 168.01139278318  0.50235339391601 171.707406091919 0.500757591604335 1.11681567892528 
                               0.505880711321548 179.712855191046 0.490097492055577 168.009426826957 0.500757591604336 1.11681567892527 0.502354872329138 171.70450506236  
! Gamma         0.00346003324365331 1.82042844909094 0.00583457984399572 1.86888592985351 0                0                0                0                
! Port Impedance         50               0                50               0                50               0                50               0                
0.0847                         0.493136166180612 165.731283351401 0.491916243090085 -16.526948444869 0.506891771358848 179.659226467542 0.50689397225177 179.658133120877 
                               0.491916243090085 -16.526948444869 0.526979485248012 141.169031927076 0.488498152578238 167.091865017212 0.488496793951223 167.08974698805  
                               0.506891771358849 179.659226467542 0.488498152578238 167.091865017212 0.501922069401215 171.062164396045 0.501711081018817 1.17965518845606 
                               0.50689397225177 179.658133120877 0.488496793951222 167.08974698805  0.501711081018818 1.17965518845605 0.501923626325007 171.059035793732 
! Gamma         0.00356203238085769 1.96479264415996 0.00599731956828512 2.01707046108303 0                0                0                0                
! Port Impedance         50               0                50               0                50               0                50               0                
0.090925                       0.49279756603991 164.712254185248 0.490023556721343 -17.7055453732591 0.50796178635993 179.597829003343 0.507964066911117 179.596647004626 
                               0.490023556721343 -17.7055453732591 0.531822744377098 138.592487585174 0.486795938642478 166.179289906607 0.486794460600096 166.177019975463 
                               0.50796178635993 179.597829003343 0.486795938642478 166.179289906607 0.501465557435823 170.420145170795 0.502720869514019 1.23655182221339 
                               0.507964066911117 179.596647004626 0.486794460600095 166.177019975463 0.502720869514019 1.23655182221338 0.501467199960919 170.416789945489 
! Gamma         0.00366622388120675 2.10915229402315 0.00616494714948416 2.1652477421473  0                0                0                0                
! Port Impedance         50               0                50               0                50               0                50               0                
0.09715                        0.492445157191224 163.698904960876 0.488021387056924 -18.8764786005839 0.509084703568153 179.529430205001 0.509087065691666 179.528158835079 
                               0.488021387056924 -18.8764786005839 0.536879059544049 136.064789898104 0.484996036580059 165.274045156491 0.484994432759289 165.271623540942 
                               0.509084703568153 179.529430205001 0.484996036580059 165.274045156491 0.500985401774213 169.78147936486  0.503783676326879 1.28730972501355 
                               0.509087065691666 179.528158835079 0.484994432759289 165.271623540942 0.503783676326879 1.28730972501355 0.500987137258589 169.777898493816 
! Gamma         0.00377162690179723 2.25350682532258 0.00633612419874516 2.31341684593668 0                0                0                0                
! Port Impedance         50               0                50               0                50               0                50               0                
0.103375                       0.492076193083922 162.691305978062 0.485916874881759 -20.0387206743622 0.510252466506678 179.453689922008 0.510254978925226 179.452319477068 
                               0.485916874881759 -20.0387206743622 0.542120630443947 133.589295244029 0.483100713721339 164.377237455999 0.483098920005747 164.374668586977 
                               0.510252466506678 179.453689922008 0.48310071372134 164.377237455999 0.500482625145271 169.146686660631 0.504893187452338 1.33135811951454 
                               0.510254978925226 179.452319477068 0.483098920005747 164.374668586977 0.504893187452338 1.33135811951455 0.500484245241302 169.142877435857 
! Gamma         0.0038825141990272 2.39787805319381 0.00650711515503344 2.46159551980146 0                0                0                0                
! Port Impedance         50               0                50               0                50               0                50               0                
0.1096                         0.491694249148325 161.68991907593  0.483715229438634 -21.1921225238585 0.511462166646617 179.370567358643 0.5114648625404  179.369091459217 
                               0.483715229438635 -21.1921225238585 0.547533036831628 131.16607559205  0.481116915649398 163.488980381898 0.481114895499174 163.48626720907  
                               0.511462166646617 179.370567358643 0.481116915649398 163.488980381898 0.499959871798197 168.515757168632 0.506046464753665 1.36878284946139 
                               0.511464862540401 179.369091459217 0.481114895499174 163.48626720907  0.506046464753665 1.36878284946142 0.499961248466417 168.511722570433 
! Gamma         0.00400014375663305 2.54226015877297 0.00668077196075613 2.60978017806571 0                0                0                0                
! Port Impedance         50               0                50               0                50               0                50               0                
0.115825                       0.491305263669307 160.695184573018 0.481419041629187 -22.3369566335363 0.51271333004629 179.280067670378 0.512716183344465 179.278487641124 
                               0.481419041629187 -22.3369566335363 0.553103268957737 128.793324433614 0.479050751392408 162.608917507993 0.479048518660032 162.606059389086 
                               0.512713330046289 179.280067670378 0.479050751392409 162.608917507993 0.499419314719756 167.888446740056 0.507242873699743 1.39982635151126 
                               0.512716183344465 179.278487641124 0.479048518660032 162.606059389086 0.507242873699743 1.3998263515113  0.499420510817604 167.884192849002 
! Gamma         0.00412037052447355 2.68663398241068 0.00685943681755899 2.75795511249545 0                0                0                0                
! Port Impedance         50               0                50               0                50               0                50               0                
0.12205                        0.490911074843057 159.707292256583 0.479032937593432 -23.4729240078544 0.514001906767769 179.182083930001 0.514004895793213 179.180400730271 
                               0.479032937593432 -23.4729240078544 0.558811573391766 126.471156103089 0.476906162807297 161.737336418625 0.476903727766236 161.734332879055 
                               0.514001906767768 179.182083930001 0.476906162807298 161.737336418625 0.498862399230677 167.264854718466 0.508479240560515 1.42437066947999 
                               0.514004895793214 179.180400730271 0.476903727766237 161.734332879055 0.508479240560515 1.42437066948004 0.498863471532786 167.260386210403 
! Gamma         0.00424273786271504 2.83099988981185 0.0070425014383832 2.90612044629207 0                0                0                0                
! Port Impedance         50               0                50               0                50               0                50               0                
0.128275                       0.490513490349037 158.726420494905 0.476561603452242 -24.5997449158873 0.515323871694014 179.076546453471 0.515326978101591 179.07476077146  
                               0.476561603452242 -24.5997449158873 0.564638944338052 124.1994865795   0.474687228038984 160.874506055604 0.474684598253554 160.871356748691 
                               0.515323871694013 179.076546453471 0.474687228038984 160.874506055604 0.498290612543716 166.645070770663 0.509752356230531 1.44233048724049 
                               0.515326978101591 179.07476077146  0.474684598253554 160.871356748691 0.509752356230531 1.44233048724056 0.498291612172795 166.640391277625 
! Gamma         0.00436681528608285 2.97535822411733 0.00722937870357618 3.05427632272791 0                0                0                0                
! Port Impedance         50               0                50               0                50               0                50               0                
0.1345                         0.490114291644807 157.752735375826 0.474009764623164 -25.7171597043065 0.516675247754949 178.963420577389 0.51667845574575 178.961532897641 
                               0.474009764623164 -25.7171597043065 0.570567185521546 121.978055861704 0.472398120320805 160.020675324596 0.472395301284071 160.017380003171 
                               0.516675247754948 178.963420577389 0.472398120320806 160.020675324596 0.497705467573159 166.029174364757 0.511059010649518 1.45365131330296 
                               0.516678455745751 178.961532897641 0.472395301284071 160.017380003171 0.511059010649518 1.45365131330303 0.497706440538295 166.024286739984 
! Gamma         0.00449220019724942 3.11970931438009 0.00741950578989305 3.20242290696723 0                0                0                0                
! Port Impedance         50               0                50               0                50               0                50               0                
0.140725                       0.489715234428671 156.786389996658 0.471382165174469 -26.8249292953421 0.518052126676994 178.842704327178 0.518055422410087 178.840714979919 
                               0.47138216517447 -26.8249292953421 0.5765789587266  119.806449906563 0.47004307304969 159.176072309812 0.470040068658218 159.172630805571 
                               0.518052126676992 178.842704327178 0.470043073049691 159.176072309812 0.497108489303045 165.417234530565 0.512396020394829 1.45830748312748 
                               0.518055422410088 178.840714979919 0.470040068658218 159.172630805571 0.512396020394829 1.45830748312755 0.497109477055228 165.412141044292 
! Gamma         0.00461851901548286 3.26405348071682 0.00761234670724096 3.35056038622183 0                0                0                0                
! Port Impedance         50               0                50               0                50               0                50               0                
0.14695                        0.489318046573842 155.827523938789 0.468683547768841 -27.9228354265946 0.519450687357948 178.714426011245 0.519454058505524 178.712335209062 
                               0.468683547768841 -27.9228354265946 0.582657819602522 117.684121618675 0.467626349778919 158.340903912476 0.467623162690813 158.337316120706 
                               0.519450687357947 178.714426011245 0.46762634977892 158.340903912476 0.496501203151971 164.809309824802 0.513760251087666 1.45630006913548 
                               0.519454058505525 178.712335209062 0.467623162690814 158.337316120706 0.513760251087666 1.45630006913556 0.496502243111894 164.804012309871 
! Gamma         0.00474542775478359 3.40839103722272 0.0078073942628671 3.49868896878596 0                0                0                0                
! Port Impedance         50               0                50               0                50               0                50               0                
0.153175                       0.488924424492673 154.87626293145  0.465918634553641 -29.0106806783965 0.520867211954333 178.578641772783 0.520870647362323 178.576449638314 
                               0.465918634553641 -29.0106806783965 0.588788241559377 115.610410554091 0.465152218179468 157.51535579338  0.465148850087605 157.51162166147  
                               0.520867211954332 178.578641772784 0.465152218179468 157.51535579338  0.495885124952382 164.205448448449 0.515148635732409 1.44765475289813 
                               0.520870647362324 178.576449638314 0.465148850087605 157.51162166147  0.515148635732409 1.44765475289822 0.495886250990558 164.199948409336 
! Gamma         0.00487261211389114 3.55272229339018 0.00800417148452052 3.64680888232914 0                0                0                0                
! Port Impedance         50               0                50               0                50               0                50               0                
0.1594                         0.488536028624345 153.932718693906 0.463092109228127 -30.0882883256401 0.522298099764719 178.435433128293 0.522301589191946 178.433139715418 
                               0.463092109228127 -30.0882883256401 0.594955628746555 113.584561132658 0.462624927298837 156.699592539728 0.462621379141598 156.69571205841  
                               0.522298099764717 178.435433128293 0.462624927298837 156.699592539728 0.495261752279267 163.605688479225 0.516558189762547 1.43241969496081 
                               0.522301589191947 178.433139715418 0.462621379141598 156.69571205841  0.516558189762547 1.4324196949609  0.495262995141958 163.59998717425  
! Gamma         0.00499978714441668 3.6970475545488  0.00820223254266753 3.79492037172252 0                0                0                0                
! Port Impedance         50               0                50               0                50               0                50               0                
0.165625                       0.488154478540283 152.9969889381   0.460208600432815 -31.1555020442241 0.523739878996474 178.284904519498 0.523743412912926 178.282509829762 
                               0.460208600432815 -31.1555020442241 0.601146319217775 111.60573925364  0.460048687635049 155.893758001383 0.4600449597604  155.889731197957 
                               0.523739878996473 178.284904519498 0.460048687635049 155.893758001383 0.494632556939474 163.010058192097 0.517986023339673 1.41066342740979 
                               0.523743412912927 178.282509829762 0.460044959760401 155.889731197957 0.517986023339673 1.41066342740988 0.494633944620955 163.004156695838 
! Gamma         0.00512669656395367 3.84136712168065 0.00840116321763015 3.94302369660319 0                0                0                0                
! Port Impedance         50               0                50               0                50               0                50               0                
0.17185                        0.48778134801399 152.069157511061 0.457272666546939 -32.2121854970967 0.525189216511331 178.127180902868 0.525192785941378 178.124684898324 
                               0.457272666546939 -32.2121854970967 0.607347579440588 109.673047283842 0.457427653671459 155.097975757493 0.457423745965767 155.093802690522 
                               0.525189216511328 178.127180902869 0.457427653671459 155.097975757493 0.493998978482807 162.418576447273 0.519429351303964 1.38247278838573 
                               0.525192785941378 178.124684898324 0.457423745965767 155.093802690522 0.519429351303964 1.38247278838582 0.49400053654787 162.412475698305 
! Gamma         0.00525311177909502 3.98568129086603 0.0086005809609785 4.09111912881872 0                0                0                0                
! Port Impedance         50               0                50               0                50               0                50               0                
0.178075                       0.48741816029357 151.149294656162 0.454288781937244 -33.2582218208968 0.526642925654751 177.962405398235 0.526646522054866 177.959808011594 
                               0.454288781937244 -33.2582218208968 0.613547591314726 107.785537441934 0.45476590860442 154.312349684655 0.454761820594322 154.308030439761 
                               0.526642925654748 177.962405398235 0.454765908604421 154.312349684655 0.493362418628709 161.831253129617 0.520885501078436 1.34795091405598 
                               0.526646522054867 177.959808011594 0.454761820594322 154.308030439761 0.520885501078437 1.34795091405608 0.493364170490698 161.824953967261 
! Gamma         0.00537883067956707 4.12999035253119 0.00880013460195447 4.23920694986296 0                0                0                0                
! Port Impedance         50               0                50               0                50               0                50               0                
0.1843                         0.487066383735869 150.23745737334  0.451261324669684 -34.2935130311047 0.528097972283684 177.790737015161 0.528101587446837 177.788038157859 
                               0.451261324669684 -34.2935130311047 0.619735432832665 105.942223641206 0.452067451053972 153.536964604579 0.45206318198745 153.532499291074 
                               0.528097972283681 177.790737015161 0.452067451053973 153.536964604579 0.492724236523677 161.248089626465 0.522351918767021 1.30721530091394 
                               0.528101587446837 177.788038157859 0.452063181987451 153.532499291074 0.522351918767021 1.30721530091403 0.492726203683685 161.241592819309 
! Gamma         0.00550367625970913 4.27429459062153 0.00899950374954847 4.38728744837968 0                0                0                0                